-- for spe11c -- test

DIMENS 
170 102 120 /

MODEL
ISOTHERMAL

TABDIMS
7 1 1

BLACKOIL
GAS
WATER

EQUILWAT

METRIC

-- FIELD

-- SPE11A


INCLUDE
COORD.INC
/

INCLUDE
ZCORN.INC
/

INCLUDE
PORO.INC
/

INCLUDE
SATNUM.INC
/

INCLUDE
PERMX.INC
/

INCLUDE
PERMY.INC
/

INCLUDE
PERMZ.INC
/

INCLUDE
spe11c.property
/


INCLUDE
PVT2.INC
/


GARCIAW


ROCK
LINEAR01  0   0
/

SUMMARY
FPR
WGIR
/
WBHP 
/
/


VTKSCHED
*PRES
SGAS
*CO2
SATNUM
PERMX
/


METHOD
FIM  bsr.fasp
/

